LAMMPS data file Created by LigParGen - (Written by Leela S. Dodda)

      33 atoms
      33 bonds
      60 angles
      84 dihedrals
      20 impropers
 
      33 atom types
      33 bond types
      60 angle types
      84 dihedral types
      20 improper types
 
   -2.798080    47.201920 xlo xhi
   -8.116680    41.883320 ylo yhi
   -0.955520    49.044480 zlo zhi

Masses

       1     12.011  
       2     12.011  
       3     30.974  
       4     15.999  
       5     15.999  
       6     12.011  
       7     14.007  
       8      1.008  
       9      1.008  
      10      1.008  
      11     12.011  
      12     12.011  
      13     12.011  
      14     12.011  
      15     12.011  
      16     12.011  
      17     12.011  
      18     12.011  
      19      1.008  
      20      1.008  
      21      1.008  
      22      1.008  
      23      1.008  
      24      1.008  
      25      1.008  
      26      1.008  
      27      1.008  
      28      1.008  
      29      1.008  
      30      1.008  
      31      1.008  
      32      1.008  
      33      1.008  

Pair Coeffs 

       1      0.066  3.5000000 
       2      0.066  3.5000000 
       3      0.200  3.7400000 
       4      0.210  2.9600000 
       5      0.210  2.9600000 
       6      0.066  3.5000000 
       7      0.170  3.2500000 
       8      0.000  0.0000000 
       9      0.000  0.0000000 
      10      0.000  0.0000000 
      11      0.066  3.5000000 
      12      0.066  3.5000000 
      13      0.070  3.5500000 
      14      0.070  3.5500000 
      15      0.070  3.5500000 
      16      0.070  3.5500000 
      17      0.070  3.5500000 
      18      0.070  3.5500000 
      19      0.030  2.5000000 
      20      0.030  2.5000000 
      21      0.030  2.5000000 
      22      0.030  2.5000000 
      23      0.030  2.5000000 
      24      0.030  2.5000000 
      25      0.030  2.5000000 
      26      0.030  2.5000000 
      27      0.030  2.5000000 
      28      0.030  2.5000000 
      29      0.030  2.4200000 
      30      0.030  2.4200000 
      31      0.030  2.4200000 
      32      0.030  2.4200000 
      33      0.030  2.4200000 

Bond Coeffs 

       1   268.0000     1.5290 
       2   212.0000     1.8430 
       3   525.0000     1.4800 
       4   525.0000     1.4800 
       5   212.0000     1.8430 
       6   367.0000     1.4710 
       7   434.0000     1.0100 
       8   434.0000     1.0100 
       9   434.0000     1.0100 
      10   268.0000     1.5290 
      11   268.0000     1.5290 
      12   317.0000     1.5100 
      13   469.0000     1.4000 
      14   469.0000     1.4000 
      15   469.0000     1.4000 
      16   469.0000     1.4000 
      17   469.0000     1.4000 
      18   340.0000     1.0900 
      19   340.0000     1.0900 
      20   340.0000     1.0900 
      21   340.0000     1.0900 
      22   340.0000     1.0900 
      23   340.0000     1.0900 
      24   340.0000     1.0900 
      25   340.0000     1.0900 
      26   340.0000     1.0900 
      27   340.0000     1.0900 
      28   367.0000     1.0800 
      29   367.0000     1.0800 
      30   367.0000     1.0800 
      31   367.0000     1.0800 
      32   367.0000     1.0800 
      33   469.0000     1.4000 

Angle Coeffs 

       1     43.000    109.500
       2     45.000    109.500
       3     45.000    109.500
       4     62.000     98.900
       5     43.000    109.500
       6     32.150    107.640
       7     32.150    107.640
       8     32.150    107.640
       9     43.000    109.500
      10     58.350    112.700
      11     63.000    114.000
      12     70.000    120.000
      13     63.000    120.000
      14     63.000    120.000
      15     63.000    120.000
      16     70.000    120.000
      17     37.500    110.700
      18     37.500    110.700
      19     37.500    110.700
      20     37.500    110.700
      21     37.500    110.700
      22     41.000    109.500
      23     37.500    110.700
      24     37.500    110.700
      25     37.500    110.700
      26     37.500    110.700
      27     35.000    120.000
      28     35.000    120.000
      29     35.000    120.000
      30     35.000    120.000
      31     35.000    120.000
      32     35.000    120.000
      33     37.500    110.700
      34     43.600    109.500
      35     35.000    120.000
      36     35.000    109.500
      37     33.000    107.800
      38     37.500    110.700
      39     35.000    120.000
      40     43.600    109.500
      41     63.000    120.000
      42     35.000    120.000
      43     43.600    109.500
      44     41.000    109.500
      45     41.000    109.500
      46     63.570    108.400
      47     33.000    107.800
      48     80.000    111.200
      49     33.000    107.800
      50     35.000    120.000
      51     33.000    107.800
      52     45.000    109.500
      53     35.000    109.500
      54     33.000    107.800
      55     45.000    109.500
      56     33.000    107.800
      57     37.500    110.700
      58     63.000    120.000
      59     63.000    120.000
      60     35.000    109.500

Dihedral Coeffs  

       1      2.250      0.000      0.000      0.000 
       2      2.732     -0.229      0.485      0.000 
       3      0.000      0.000      0.261      0.000 
       4      0.845     -0.962      0.713      0.000 
       5      1.300     -0.200      0.200      0.000 
       6      0.000      0.000      0.000      0.000 
       7      0.000      7.250      0.000      0.000 
       8      0.000      7.250      0.000      0.000 
       9      0.000      7.250      0.000      0.000 
      10      0.000      0.000      0.300      0.000 
      11      0.000      0.000      0.300      0.000 
      12      0.000      0.000      0.300      0.000 
      13      0.000      0.000      0.300      0.000 
      14      2.250      0.000      0.000      0.000 
      15      0.000      7.250      0.000      0.000 
      16      0.000      7.250      0.000      0.000 
      17      0.000      7.250      0.000      0.000 
      18      2.250      0.000      0.000      0.000 
      19      0.000      0.000      0.300      0.000 
      20      2.732     -0.229      0.485      0.000 
      21      0.000      7.250      0.000      0.000 
      22      0.000      0.000      0.384      0.000 
      23      0.000      0.000      0.000      0.000 
      24      0.000      0.000      0.300      0.000 
      25      0.000      0.000      0.300      0.000 
      26      0.000      0.000      0.300      0.000 
      27      0.000      0.000      0.250      0.000 
      28      0.000      0.000      0.000      0.000 
      29      0.000      7.250      0.000      0.000 
      30      0.000      7.250      0.000      0.000 
      31      0.000      7.250      0.000      0.000 
      32      0.000      0.000      0.250      0.000 
      33      0.000      7.250      0.000      0.000 
      34      0.000      0.000      0.261      0.000 
      35      0.000      0.000      0.300      0.000 
      36      0.000      0.000      0.000      0.000 
      37      0.000      0.000      0.347      0.000 
      38      0.000      0.000      0.300      0.000 
      39      0.000      0.000      0.300      0.000 
      40      0.000      0.000      0.300      0.000 
      41      0.000      7.250      0.000      0.000 
      42      0.000      0.000      0.300      0.000 
      43      0.000      0.000      0.261      0.000 
      44      0.000      0.000      0.250      0.000 
      45      1.000     -0.500      0.500      0.000 
      46      0.000      0.000      0.384      0.000 
      47      0.000      0.000      0.250      0.000 
      48      0.000      0.000      0.462      0.000 
      49      0.000      7.250      0.000      0.000 
      50      0.000      7.250      0.000      0.000 
      51      0.000      0.000      0.000      0.000 
      52      0.000      0.000      0.300      0.000 
      53      0.000      0.000      0.300      0.000 
      54      0.000      7.250      0.000      0.000 
      55      0.000      0.000      0.300      0.000 
      56      0.000      0.000      0.300      0.000 
      57      0.000      0.000      0.300      0.000 
      58      0.000      7.250      0.000      0.000 
      59      0.000      0.000      0.250      0.000 
      60      0.000      0.000      0.250      0.000 
      61      0.000      0.000      0.300      0.000 
      62      2.250      0.000      0.000      0.000 
      63      0.000      0.000      0.261      0.000 
      64      0.000      7.250      0.000      0.000 
      65      0.000      0.000      0.300      0.000 
      66      0.000      7.250      0.000      0.000 
      67      0.000      7.250      0.000      0.000 
      68      0.000      7.250      0.000      0.000 
      69      0.000      0.000      0.000      0.000 
      70      0.000      7.250      0.000      0.000 
      71      0.000      0.000      0.300      0.000 
      72      0.000      0.000      0.300      0.000 
      73      0.000      7.250      0.000      0.000 
      74      0.000      0.000      0.000      0.000 
      75      0.000      7.250      0.000      0.000 
      76      0.000      0.000      0.347      0.000 
      77      0.000      7.250      0.000      0.000 
      78      0.000      0.000      0.000      0.000 
      79      0.000      0.000      0.261      0.000 
      80      0.000      0.000      0.300      0.000 
      81      1.000     -0.500      0.500      0.000 
      82      0.000      0.000      0.462      0.000 
      83      0.000      0.000      0.261      0.000 
      84      0.000      0.000      0.347      0.000 

Improper Coeffs 

       1      0.000      -1       2 
       2      0.000      -1       2 
       3      0.000      -1       2 
       4      0.000      -1       2 
       5      0.000      -1       2 
       6      2.500      -1       2 
       7      0.000      -1       2 
       8      0.000      -1       2 
       9      0.000      -1       2 
      10      0.000      -1       2 
      11      0.000      -1       2 
      12      0.000      -1       2 
      13      0.000      -1       2 
      14      0.000      -1       2 
      15      0.000      -1       2 
      16      2.500      -1       2 
      17      2.500      -1       2 
      18      2.500      -1       2 
      19      2.500      -1       2 
      20      2.500      -1       2 

Atoms 

     1      1      1 -0.20260000    1.000  1.00000  0.00000
     2      1      2 -0.89640000   -0.513  1.00000  0.00000
     3      1      3 2.92790000   -1.329  1.00000  1.58372
     4      1      4 -1.31000000   -0.936  2.17593  2.45556
     5      1      5 -1.31000000   -2.798  0.64875  1.48582
     6      1      6 -0.67160000   -0.688 -0.39829  2.67452
     7      1      7 -0.50010000   -1.450 -0.08414  3.95160
     8      1      8 0.41170000   -2.449 -0.06475  3.65166
     9      1      9 0.41170000   -1.289 -0.60493  4.80220
    10      1     10 0.41170000   -1.278  0.94193  4.06481
    11      1     11 -0.17770000   -1.008 -1.82196  2.23025
    12      1     12 -0.13610000   -0.495 -2.88530  3.22302
    13      1     13 -0.08440000   -0.810 -4.33556  2.91581
    14      1     14 -0.14620000   -1.533 -4.74486  1.78981
    15      1     15 -0.14150000   -1.793 -6.10015  1.56074
    16      1     16 -0.14550000   -1.334 -7.06562  2.45381
    17      1     17 -0.14150000   -0.615 -6.67572  3.57724
    18      1     18 -0.14620000   -0.354 -5.32377  3.80789
    19      1     19 0.08070000    1.377  1.38188 -0.95552
    20      1     20 0.08070000    1.382 -0.01688  0.12693
    21      1     21 0.08070000    1.401  1.62316  0.80337
    22      1     22 0.13450000   -0.878  0.16619 -0.60975
    23      1     23 0.13450000   -0.847  1.91676 -0.50197
    24      1     24 0.14770000    0.373 -0.24102  2.89244
    25      1     25 0.13100000   -0.552 -1.98906  1.24707
    26      1     26 0.13100000   -2.091 -1.92856  2.09726
    27      1     27 0.08610000   -0.916 -2.67832  4.21433
    28      1     28 0.08610000    0.595 -2.78786  3.30547
    29      1     29 0.14860000   -1.911 -4.02777  1.06708
    30      1     30 0.15230000   -2.357 -6.39867  0.68131
    31      1     31 0.15190000   -1.541 -8.11668  2.27014
    32      1     32 0.15230000   -0.256 -7.42510  4.27728
    33      1     33 0.14860000    0.211 -5.04767  4.69542

Bonds 

     1      1      2      1
     2      2      3      2
     3      3      4      3
     4      4      5      3
     5      5      6      3
     6      6      7      6
     7      7      8      7
     8      8      9      7
     9      9     10      7
    10     10     11      6
    11     11     12     11
    12     12     13     12
    13     13     14     13
    14     14     15     14
    15     15     16     15
    16     16     17     16
    17     17     18     13
    18     18     19      1
    19     19     20      1
    20     20     21      1
    21     21     22      2
    22     22     23      2
    23     23     24      6
    24     24     25     11
    25     25     26     11
    26     26     27     12
    27     27     28     12
    28     28     29     14
    29     29     30     15
    30     30     31     16
    31     31     32     17
    32     32     33     18
    33     33     18     17

Angles 

     1      1      1      2      3
     2      2      2      3      4
     3      3      2      3      5
     4      4      2      3      6
     5      5      3      6      7
     6      6      6      7      8
     7      7      6      7      9
     8      8      6      7     10
     9      9      3      6     11
    10     10      6     11     12
    11     11     11     12     13
    12     12     12     13     14
    13     13     13     14     15
    14     14     14     15     16
    15     15     15     16     17
    16     16     12     13     18
    17     17      2      1     19
    18     18      2      1     20
    19     19      2      1     21
    20     20      1      2     22
    21     21      1      2     23
    22     22      3      6     24
    23     23      6     11     25
    24     24      6     11     26
    25     25     11     12     27
    26     26     11     12     28
    27     27     13     14     29
    28     28     14     15     30
    29     29     15     16     31
    30     30     16     17     32
    31     31     13     18     33
    32     32     17     18     33
    33     33     11      6     24
    34     34      9      7     10
    35     35     16     15     30
    36     36      7      6     24
    37     37     20      1     21
    38     38     12     11     25
    39     39     18     17     32
    40     40      8      7     10
    41     41     16     17     18
    42     42     15     14     29
    43     43      8      7      9
    44     44      3      2     22
    45     45      3      2     23
    46     46      4      3      5
    47     47     27     12     28
    48     48      7      6     11
    49     49     22      2     23
    50     50     17     16     31
    51     51     19      1     21
    52     52      4      3      6
    53     53     13     12     28
    54     54     25     11     26
    55     55      5      3      6
    56     56     19      1     20
    57     57     12     11     26
    58     58     14     13     18
    59     59     13     18     17
    60     60     13     12     27

Dihedrals

     1      1      4      3      2      1 
     2      2      7      6      3      2 
     3      3      8      7      6      3 
     4      4     12     11      6      3 
     5      5     13     12     11      6 
     6      6     14     13     12     11 
     7      7     15     14     13     12 
     8      8     16     15     14     13 
     9      9     17     16     15     14 
    10     10     19      1      2      3 
    11     11     22      2      1     21 
    12     12     28     12     11     26 
    13     13     28     12     11      6 
    14     14     11      6      3      4 
    15     15     17     18     13     14 
    16     16     30     15     14     29 
    17     17     29     14     13     18 
    18     18      5      3      2      1 
    19     19     25     11      6     24 
    20     20     12     11      6      7 
    21     21     33     18     17     32 
    22     22     25     11      6      7 
    23     23      7      6      3      5 
    24     24     20      1      2      3 
    25     25     23      2      1     20 
    26     26     22      2      1     19 
    27     27     24      6      3      5 
    28     28     18     13     12     11 
    29     29     33     18     17     16 
    30     30     16     17     18     13 
    31     31     32     17     16     31 
    32     32     24      6      3      4 
    33     33     29     14     13     12 
    34     34     24      6      7     10 
    35     35     25     11      6      3 
    36     36     27     12     13     14 
    37     37     11      6      7      8 
    38     38     26     11      6     24 
    39     39     23      2      1     21 
    40     40     27     12     11     25 
    41     41     30     15     14     13 
    42     42     24      6     11     12 
    43     43      9      7      6      3 
    44     44     23      2      3      5 
    45     45     11      6      3      2 
    46     46     26     11      6      7 
    47     47     22      2      3      4 
    48     48     26     11     12     13 
    49     49     31     16     15     14 
    50     50     17     18     13     12 
    51     51     28     12     13     14 
    52     52     28     12     11     25 
    53     53     27     12     11     26 
    54     54     30     15     16     17 
    55     55     22      2      1     20 
    56     56     27     12     11      6 
    57     57     26     11      6      3 
    58     58     32     17     16     15 
    59     59     22      2      3      5 
    60     60     23      2      3      4 
    61     61     22      2      3      6 
    62     62     11      6      3      5 
    63     63     24      6      7      9 
    64     64     31     16     15     30 
    65     65     24      6      3      2 
    66     66     18     17     16     15 
    67     67     31     16     17     18 
    68     68     32     17     18     13 
    69     69     27     12     13     18 
    70     70     33     18     13     12 
    71     71     21      1      2      3 
    72     72     23      2      3      6 
    73     73     33     18     13     14 
    74     74     28     12     13     18 
    75     75     29     14     15     16 
    76     76     11      6      7     10 
    77     77     18     13     14     15 
    78     78      7      6      3      4 
    79     79     10      7      6      3 
    80     80     23      2      1     19 
    81     81      6      3      2      1 
    82     82     25     11     12     13 
    83     83     24      6      7      8 
    84     84     11      6      7      9 

Impropers

     1      1      3      2      4      5 
     2      2      3      2      4      6 
     3      3      7      9      6      8 
     4      4      7     10      6      8 
     5      5      6     11      3      7 
     6      6     13     18     12     14 
     7      7      1      2     19     20 
     8      8      1      2     19     21 
     9      9      2      1      3     22 
    10     10      2      1      3     23 
    11     11      6      3      7     24 
    12     12     11     25     12      6 
    13     13     11     26     12      6 
    14     14     12     27     13     11 
    15     15     12     11     28     13 
    16     16     14     13     29     15 
    17     17     15     16     30     14 
    18     18     16     17     15     31 
    19     19     17     18     16     32 
    20     20     18     33     13     17 
